VARIABLES = "X"
 "Y"
 "Z"
 "Density"
 "Shear Strain Rate"
 "Mach Number"
 "Pressure"
 "Total Pressure"
 "Temperature"
 "Total Temperature"
 "Bulk Energy Flow Rate"
 "X Bulk Momentum Flow Rate"
 "Y Bulk Momentum Flow Rate"
 "Z Bulk Momentum Flow Rate"
 "X Wall Shear"
 "Y Wall Shear"
 "Z Wall Shear"
 "Turbulence Eddy Dissipation"
 "U"
 "V"
 "W"
 "Dynamic Viscosity"
 "Eddy Viscosity"
 "X Vorticity"
 "Y Vorticity"
 "Z Vorticity"
 "Y Plus"
 "Solver Y Plus"
 "Node UserID"
 "Element UserID"
 "Material ID"
 "Part ID"
 "Property ID"
ZONE
DT=(DOUBLE,DOUBLE,DOUBLE,DOUBLE,DOUBLE,DOUBLE,DOUBLE,DOUBLE,DOUBLE,DOUBLE,DOUBLE,DOUBLE,DOUBLE,DOUBLE,DOUBLE,DOUBLE,DOUBLE,DOUBLE,DOUBLE,DOUBLE,DOUBLE,DOUBLE,DOUBLE,DOUBLE,DOUBLE,DOUBLE,DOUBLE,DOUBLE,DOUBLE,DOUBLE,DOUBLE,DOUBLE,DOUBLE)
                  0.005                 -0.0005                       0        1.16775867939081        24.0056334650644        0.12159716709822       -1042.01452625833     -0.0375000160303908        299.114898681745                     300                       0                       0                       0                       0                       0                       0                       0        12273.2994560028         42.166159818392                       0                       0   1.83100000867853E-005    0.000175451931329637                       0                       0                       0                       0                       0        22442.0000189515         10632.500018809                       1                       1                       1 
                  0.005                 -0.0005    0.000200502512562814        1.16775870647645        24.3047615124583       0.121596756941851       -1042.00836337964     -0.0471614008706995        299.114910841636                     300                       0                       0                       0                       0                       0                       0                       0        12273.7504351633        42.1660183031862                       0    -0.00233982247537968   1.83100000867853E-005     0.00017545269171516                       0    -0.00202732385584491                       0                       0                       0        19277.2056236754        10632.7696588416                       1                       1                       1 
                  0.005                 -0.0005    0.000401005025125628        1.16775874526786        24.6025286742281       0.121596347950038       -1042.00220891613     -0.0536951679260106        299.114919925438                     300                       0                       0                       0                       0                       0                       0                       0         12274.142691937        42.1658769378939                       0    -0.00459138635347637   1.83100000867853E-005    0.000175453403893489                       0    -0.00494654640863532                       0                       0                       0        16112.4112002571        10633.0346821681                       1                       1                       1 
                  0.005                 -0.0005    0.000601507537688442        1.16775878288616        24.9004322189948       0.121595938841516       -1041.99605360927     -0.0605423731358256        299.114929317515                     300                       0                       0                       0                       0                       0                       0                       0        12274.5408336476        42.1657355575773                       0    -0.00685179517790591   1.83100000867853E-005    0.000175454120902965                       0    -0.00777638698483435                       0                       0                       0        12947.6168049811        10633.3001681636                       1                       1                       1 
                  0.005                 -0.0005    0.000802010050251256        1.16775888531148        25.1882278635205       0.121595048960548       -1041.98142015233     -0.0653281550222589        299.114945740362                     300                       0                       0                       0                       0                       0                       0                       0        12274.6715477317        42.1654275776421                       0    -0.00935783293051133   1.83100000867853E-005    0.000175454527739704                       0     -0.0118091964165286                       0                       0                       0        10962.4999908092        10633.6228840034                       1                       1                       1 
                  0.005                 -0.0005     0.00100251256281407        1.16775912152229         25.463437687192        0.12159335364076       -1041.95258072472     -0.0562642490881532        299.114964515529                     300                       0                       0                       0                       0                       0                       0                       0        12274.1656902319        42.1648400744382                       0      -0.012001327986311   1.83100000867853E-005    0.000175454300816779                       0     -0.0182450357075525                       0                       0                       0        10962.4999908092        10634.0276828669                       1                       1                       1 
                  0.005                 -0.0005     0.00120301507537688        1.16775935763667        25.7420246082235       0.121591658830907       -1041.92376104032     -0.0454860449273481        299.114981941751                     300                       0                       0                       0                       0                       0                       0                       0        12273.6314966664        42.1642528040699                       0     -0.0146043143727543   1.83100000867853E-005    0.000175454069695019                       0     -0.0239791884159494                       0                       0                       0        10962.4999811673        10634.4304594566                       1                       1                       1 
                  0.005                 -0.0005      0.0014035175879397        1.16775959387559        26.0162501357279       0.121589963362494       -1041.89491585831     -0.0369217920900527        299.115001110085                     300                       0                       0                       0                       0                       0                       0                       0        12273.1338980586        42.1636652330038                       0      -0.017259616173182   1.83100000867853E-005    0.000175453843995896                       0     -0.0306195431050756                       0                       0                       0        10962.4999811673        10634.8358477364                       1                       1                       1 
                  0.005                 -0.0005     0.00160402010050251        1.16775992826655        26.2448054516398        0.12158760104442       -1041.85480084379      -0.038380208873901        299.115035650169                     300                       0                       0                       0                       0                       0                       0                       0        12272.3211046798        42.1628472511528                       0     -0.0197875449212365   1.83100000867853E-005    0.000175453169491907                       0     -0.0698008466696791                       0                       0                       0        10962.4999811673        10635.2443575601                       1                       1                       1 
                  0.005                 -0.0005     0.00180452261306533         1.1677602958355        26.4727825367559       0.121585021040322       -1041.81097329694     -0.0469865316378814        299.115078316144                     300                       0                       0                       0                       0                       0                       0                       0        12271.2957497417        42.1619539792231                       0     -0.0221404453780632   1.83100000867853E-005    0.000175452350634472                       0      -0.120196728537408                       0                       0                       0        10962.4999811673        10635.6470277085                       1                       1                       1 
                  0.005                 -0.0005     0.00200502512562814        1.16776066340444        26.7007596222818       0.121582441036214       -1041.76714575011     -0.0555928544018617        299.115120982118                     300                       0                       0                       0                       0                       0                       0                       0        12270.2703948003        42.1610607072901                       0     -0.0244933458357378   1.83100000867853E-005    0.000175451531777044                       0      -0.170592610881482                       0                       0                       0        10962.4999715253        10636.0496978569                       1                       1                       1 
                  0.005                 -0.0005     0.00220552763819096        1.16776104868851        26.9458677417246       0.121579690045858       -1041.72093770779     -0.0599070401774172        299.115162506316                     300                       0                       0                       0                       0                       0                       0                       0        12269.2772719591        42.1601082913659                       0     -0.0269451270095808   1.83100000867853E-005    0.000175450775008317                       0       -0.21111738444463                       0                       0                       0        10962.4999715253        10636.4571260151                       1                       1                       1 
                  0.005                 -0.0005     0.00240603015075377        1.16776157243935        27.4025245609457        0.12157572996119        -1041.6578460514     -0.0583537807020009        299.115215759679                     300                       0                       0                       0                       0                       0                       0                       0        12267.9417053176        42.1587369353902                       0     -0.0294329438301517   1.83100000867853E-005    0.000175450545119543                       0       -0.18067470681922                       0                       0                       0        10962.4999715253        10636.8629445155                       1                       1                       1 
                  0.005                 -0.0005     0.00260653266331658        1.16776210446549        27.8655979573577       0.121571778069847       -1041.59488972871     -0.0540370978636799        299.115266838588                     300                       0                       0                       0                       0                       0                       0                       0         12266.546245794        42.1573683808476                       0     -0.0318565172530513   1.83100000867853E-005    0.000175450310006106                       0      -0.149589782161054                       0                       0                       0        10962.4999618833        10637.2655085939                       1                       1                       1 
                  0.005                 -0.0005      0.0028070351758794        1.16776263492532        28.3274568560361       0.121567824627711       -1041.53190779073      -0.050243462218395        299.115318329067                     300                       0                       0                       0                       0                       0                       0                       0        12265.1621224996        42.1559992960628                       0     -0.0342922503500506   1.83100000867853E-005    0.000175450075881571                       0      -0.118626420018746                       0                       0                       0        10962.4999618833        10637.6686886532                       1                       1                       1 
                  0.005                 -0.0005     0.00300753768844221         1.1677632356872        28.7891452860595       0.121563546031304       -1041.46014310905     -0.0496773363989025        299.115379803853        300.000001032748                       0                       0                       0                       0                       0                       0                       0        12263.7800694824        42.1545177969437                       0     -0.0368166248345724   1.83100000867853E-005    0.000175449853776673                       0      -0.105507263753868                       0                       0                       0        10962.4999618833        10638.0775342408                       1                       1                       1 
                  0.005                 -0.0005     0.00320804020100502        1.16776393139802        29.2792692038139       0.121558963721823       -1041.37974831787     -0.0494120462889515        299.115447676846        300.000001238792                       0                       0                       0                       0                       0                       0                       0         12262.181303523        42.1529318782477                       0     -0.0392071017175082   1.83100000867853E-005    0.000175449618214276                       0      -0.111980216060495                       0                       0                       0        10962.4999618833        10638.4806523849                       1                       1                       1 
                  0.005                 -0.0005     0.00340854271356784        1.16776462794875        29.7713997663824        0.12155438360048       -1041.29938065886     -0.0493760370274362        299.115515546843        300.000001221209                       0                       0                       0                       0                       0                       0                       0        12260.5694895977        42.1513467912865                       0     -0.0415846398990541   1.83100000867853E-005    0.000175449380709126                       0      -0.118718785280944                       0                       0                       0        10962.4999522413         10638.883095903                       1                       1                       1 
                  0.005                 -0.0005     0.00360904522613065        1.16776532105807        30.2553083777534       0.121549794513555       -1041.21890182952     -0.0484005809518527        299.115583429111        300.000002119905                       0                       0                       0                       0                       0                       0                       0        12259.0111379268        42.1497582964113                       0     -0.0440151926334929   1.83100000867853E-005    0.000175449151164147                       0      -0.124369027459154                       0                       0                       0        10962.4999522413        10639.2883036084                       1                       1                       1 
                  0.005                 -0.0005     0.00380954773869347        1.16776611583025        30.8325030533408       0.121543935619288       -1041.12310295406     -0.0511623613098354        299.115665852785        300.000001185052                       0                       0                       0                       0                       0                       0                       0        12257.0800560519        42.1477293015581                       0     -0.0464667228410448   1.83100000867853E-005    0.000175449072358781                       0      -0.159806217536565                       0                       0                       0        10962.4999522413        10639.6951383224                       1                       1                       1 
                  0.005                 -0.0005     0.00401005025125628        1.16776691083386        31.4379622778678       0.121537884006102       -1041.02513937444      -0.053280213351877        299.115750549214        300.000001167482                       0                       0                       0                       0                       0                       0                       0        12254.9853646777        42.1456337168884                       0     -0.0488304361604708   1.83100000867853E-005    0.000175448997092439                       0      -0.201307926847816                       0                       0                       0        10962.4999425993        10640.0974902862                       1                       1                       1 
                  0.005                 -0.0005     0.00421055276381909        1.16776770583747        32.0434215019484        0.12153183239292       -1040.92717579482     -0.0553980653939187        299.115835245644        300.000001149912                       0                       0                       0                       0                       0                       0                       0        12252.8906733049        42.1435381322201                       0     -0.0511941494794812   1.83100000867853E-005    0.000175448921826097                       0      -0.242809635421608                       0                       0                       0        10962.4999425993        10640.4998422501                       1                       1                       1 
                  0.005                 -0.0005     0.00441105527638191        1.16776855320737         32.624858275834       0.121525587341517       -1040.82475271092     -0.0589280363692389        299.115923943395                     300                       0                       0                       0                       0                       0                       0                       0        12250.8477248016        42.1413756000122                       0     -0.0536497339209863   1.83100000867853E-005    0.000175448871740808                       0      -0.236092292511768                       0                       0                       0        10962.4999425993        10640.9070988369                       1                       1                       1 
                  0.005                 -0.0005     0.00461155778894472        1.16776948918228        33.1797559314929       0.121518753040378        -1040.7090310518     -0.0689559454416734         299.11603142253                     300                       0                       0                       0                       0                       0                       0                       0        12248.5420492962         42.139010472525                       0     -0.0560383035828896   1.83100000867853E-005    0.000175448814308953                       0     -0.0753960677164162                       0                       0                       0        10962.4999425993        10641.3112544909                       1                       1                       1 
                  0.005                 -0.0005     0.00481206030150754        1.16777041516062         33.738876975878       0.121511925244487       -1040.59343940937     -0.0819059262620833        299.116141429003                     300                       0                       0                       0                       0                       0                       0                       0         12246.191722011        42.1366478585743                       0     -0.0583903974871555   1.83100000867853E-005     0.00017544874654465                       0      0.0862701903928957                       0                       0                       0        10962.4999329574        10641.7135008561                       1                       1                       1 
                  0.005                 -0.0005     0.00501256281407035        1.16777134518567        34.2962883477255       0.121505094815204        -1040.4777951348     -0.0936730215184451        299.116250412384                     300                       0                       0                       0                       0                       0                       0                       0        12243.8594702388        42.1342842271175                       0     -0.0607572571642756   1.83100000867853E-005    0.000175448682963033                       0       0.247543768821247                       0                       0                       0        10962.4999329574        10642.1165201216                       1                       1                       1 
                  0.005                 -0.0005     0.00521306532663317        1.16777238754554        34.9108837647987       0.121497879766397       -1040.35131796925     -0.0905218268219754        299.116356347932                     300                       0                       0                       0                       0                       0                       0                       0        12241.5214726224        42.1317860911604                       0     -0.0631983110171268   1.83100000867853E-005    0.000175448640725049                       0       0.296788925899459                       0                       0                       0        10962.4999329573        10642.5243738976                       1                       1                       1 
                  0.005                 -0.0005     0.00541356783919598        1.16777351070865        35.5839380106766       0.121490458814601       -1040.21857090953     -0.0733001197654399        299.116457940457                     300                       0                       0                       0                       0                       0                       0                       0        12238.9683167026        42.1292159361976                       0     -0.0655201905649369   1.83100000867853E-005    0.000175448584626066                       0        0.27675395166895                       0                       0                       0        10962.4999329574        10642.9265147118                       1                       1                       1 
                  0.005                 -0.0005     0.00561407035175879        1.16777463387176        36.2569922556497         0.1214830378628       -1040.08582384981     -0.0560784127089044        299.116559532982                     300                       0                       0                       0                       0                       0                       0                       0        12236.4151607813         42.126645781233                       0     -0.0678420701131809   1.83100000867853E-005    0.000175448528527087                       0       0.256718979173569                       0                       0                       0        10962.4999233154         10643.328655526                       1                       1                       1 
                  0.005                 -0.0005     0.00581457286432161        1.16777574202046        36.9223428758191       0.121475601062733       -1039.95283560704     -0.0443166100558746        299.116665017678                     300                       0                       0                       0                       0                       0                       0                       0        12233.9330716961        42.1240703343842                       0     -0.0702187009489051   1.83100000867853E-005     0.00017544847708473                       0       0.236255603092501                       0                       0                       0        10962.4999233154        10643.7337089664                       1                       1                       1 
                  0.005                 -0.0005     0.00601507537688442          1.167776994103        37.6933920295449       0.121466691914282       -1039.80289262286     -0.0442167120431361        299.116791490775                     300                       0                       0                       0                       0                       0                       0                       0         12230.980535304        42.1209855499964                       0     -0.0725654811764084   1.83100000867853E-005     0.00017544856902218                       0      0.0920829115746923                       0                       0                       0        10962.4999233154        10644.1388710336                       1                       1                       1 
                  0.005                 -0.0005     0.00621557788944724        1.16777824899339        38.4749517289369       0.121457773114744       -1039.65290708477     -0.0463167128191962         299.11691825279                     300                       0                       0                       0                       0                       0                       0                       0        12227.9344927538        42.1178976474185                       0     -0.0748533770870275   1.83100000867853E-005    0.000175448646802169                       0     -0.0554551480196659                       0                       0                       0        10962.4999136734        10644.5408919131                       1                       1                       1 
                  0.005                 -0.0005     0.00641608040201005        1.16777950388377         39.256511428639       0.121448854315193       -1039.50292154668     -0.0484167135952563        299.117045014806                     300                       0                       0                       0                       0                       0                       0                       0        12224.8884501986        42.1148097448357                       0     -0.0771412729983932   1.83100000867853E-005    0.000175448724582165                       0       -0.20299320714205                       0                       0                       0        10962.4999136734        10644.9429127927                       1                       1                       1 
                  0.005                 -0.0005     0.00661658291457286        1.16778079982151        39.9846920820672       0.121439510493565        -1039.3465528965     -0.0478334956295661        299.117177768619                     300                       0                       0                       0                       0                       0                       0                       0        12221.8546194105        42.1115743438153                       0     -0.0795118799340019   1.83100000867853E-005    0.000175448866411776                       0      -0.267239067858182                       0                       0                       0        10962.4999136734        10645.3499920407                       1                       1                       1 
                  0.005                 -0.0005     0.00681708542713568        1.16778215467622        40.6473347596225       0.121429464000168       -1039.17982837397     -0.0478154830236296        299.117321359684                     300                       0                       0                       0                       0                       0                       0                       0        12218.4572576305        42.1080965251233                       0     -0.0817780647068236   1.83100000867853E-005    0.000175449049234781                       0      -0.182671510225658                       0                       0                       0        10962.4999136734        10645.7524917923                       1                       1                       1 
                  0.005                 -0.0005     0.00701758793969849        1.16778350802105        41.3109365484178        0.12141942009589       -1039.01316011907      -0.047797551314323        299.117464948221                     300                       0                       0                       0                       0                       0                       0                       0        12215.0432197291         42.104619693637                       0     -0.0840337634664127   1.83100000867853E-005    0.000175449228886641                       0      -0.098086023306446                       0                       0                       0        10962.4999040314        10646.1544220317                       1                       1                       1 