VARIABLES = "X"
 "Y"
 "Z"
 "Density"
 "Shear Strain Rate"
 "Mach Number"
 "Pressure"
 "Total Pressure"
 "Temperature"
 "Total Temperature"
 "Bulk Energy Flow Rate"
 "X Bulk Momentum Flow Rate"
 "Y Bulk Momentum Flow Rate"
 "Z Bulk Momentum Flow Rate"
 "X Wall Shear"
 "Y Wall Shear"
 "Z Wall Shear"
 "Turbulence Eddy Dissipation"
 "U"
 "V"
 "W"
 "Dynamic Viscosity"
 "Eddy Viscosity"
 "X Vorticity"
 "Y Vorticity"
 "Z Vorticity"
 "Y Plus"
 "Solver Y Plus"
 "Node UserID"
 "Element UserID"
 "Material ID"
 "Part ID"
 "Property ID"
ZONE
DT=(DOUBLE,DOUBLE,DOUBLE,DOUBLE,DOUBLE,DOUBLE,DOUBLE,DOUBLE,DOUBLE,DOUBLE,DOUBLE,DOUBLE,DOUBLE,DOUBLE,DOUBLE,DOUBLE,DOUBLE,DOUBLE,DOUBLE,DOUBLE,DOUBLE,DOUBLE,DOUBLE,DOUBLE,DOUBLE,DOUBLE,DOUBLE,DOUBLE,DOUBLE,DOUBLE,DOUBLE,DOUBLE,DOUBLE)
                  0.095                 -0.0005                       0        1.14544222562813        2964.69879141577       0.231540148953783       -3714.66757409912       -1.49921873575076        296.815460420766        300.000045776368                       0                       0                       0                       0                       0                       0                       0        502.159224322831        79.9817836301288                       0                       0   1.83100000867853E-005    0.000168320446858127                       0                       0                       0                       0                       0         22442.000010212        534.500200629246                       1                       1                       1 
                  0.095                 -0.0005    0.000105527638190955        1.14544235290307        2966.62883368929       0.231538623905509       -3714.64116608114       -1.52250393002827        296.815507956922        300.000049728714                       0                       0                       0                       0                       0                       0                       0        502.913437712379        79.9807096941822                       0      -0.151295438493333   1.83100000867853E-005    0.000168394277271452                       0      -0.041405552514262                       0                       0                       0        19468.5691337905        534.857641094351                       1                       1                       1 
                  0.095                 -0.0005     0.00021105527638191        1.14544244164627        2968.53182813664       0.231537109631788       -3714.61795146435       -1.54784243319341        296.815554946218        300.000053696438                       0                       0                       0                       0                       0                       0                       0        503.672272799266        79.9796369155873                       0      -0.303433260610087   1.83100000867853E-005    0.000168468305905089                       0      -0.111642185561523                       0                       0                       0        16483.5682244891        535.208662111869                       1                       1                       1 
                  0.095                 -0.0005    0.000316582914572864        1.14544253038948        2970.43482258489       0.231535595358082       -3714.59473684756       -1.57318093543087        296.815601935515        300.000057664163                       0                       0                       0                       0                       0                       0                       0        504.431107886181        79.9785641369974                       0      -0.455571082725788   1.83100000867853E-005    0.000168542334538734                       0      -0.181878815513724                       0                       0                       0         13498.567325851        535.559683129388                       1                       1                       1 
                  0.095                 -0.0005    0.000422110552763819        1.14544277874453        2972.13598882049       0.231533917254068       -3714.55727869715       -1.58999944927776        296.815651945571        300.000060169377                       0                       0                       0                       0                       0                       0                       0        505.099492095958        79.9772727957614                       0      -0.606897656251283   1.83100000867853E-005    0.000168609680865842                       0      -0.185206012463233                       0                       0                       0        10962.4999995488        535.937791831767                       1                       1                       1 
                  0.095                 -0.0005    0.000527638190954774        1.14544365707535        2972.45697524401       0.231531419957108         -3714.462246626       -1.57204215925578        296.815713077942        300.000053656357                       0                       0                       0                       0                       0                       0                       0        505.274532066549        79.9747313838888                       0      -0.760010184365041   1.83100000867853E-005     0.00016863956579683                       0    0.000215198424025481                       0                       0                       0        10962.4999995488        536.424492945793                       1                       1                       1 
                  0.095                 -0.0005    0.000633165829145729        1.14544449367834        2972.77301191801       0.231529058847215        -3714.3720018106        -1.5536752135602        296.815768378227        300.000045752872                       0                       0                       0                       0                       0                       0                       0        505.451268330229        79.9722313952108                       0      -0.913846786297549   1.83100000867853E-005    0.000168669675677624                       0       0.210910824210873                       0                       0                       0        10962.4999899068        536.905982377527                       1                       1                       1 
                  0.095                 -0.0005    0.000738693467336683        1.14544534085633         2973.0903029979       0.231526663223676       -3714.28054376953       -1.53541208644556        296.815825156527         300.00003820177                       0                       0                       0                       0                       0                       0                       0        505.627574705392        79.9697209087266                       0       -1.06749988749775   1.83100000867853E-005    0.000168699728549791                       0       0.415201197424781                       0                       0                       0        10962.4999899068        537.388792596573                       1                       1                       1 
                  0.095                 -0.0005    0.000844221105527638        1.14544632162566        2973.28153129791       0.231523437827684       -3714.16887695691       -1.52470989601547         296.81590912297        300.000034069436                       0                       0                       0                       0                       0                       0                       0        505.679894168715        79.9666142744082                       0       -1.21981945011153   1.83100000867853E-005    0.000168716314048946                       0       0.497717313926836                       0                       0                       0        10962.4999899068          537.8779234489                       1                       1                       1 
                  0.095                 -0.0005    0.000949748743718593        1.14544747826645        2973.16234533063       0.231518694358818       -3714.02551848942       -1.53178103451377        296.816039621354         300.00003413242                       0                       0                       0                       0                       0                       0                       0        505.435662892653        79.9622081678828                       0       -1.37144512887984   1.83100000867853E-005     0.00016870090147845                       0       0.359028203304237                       0                       0                       0        10962.4999899068         538.36410070795                       1                       1                       1 
                  0.095                 -0.0005     0.00105527638190955         1.1454485935293        2973.06118199085       0.231514109228239       -3713.88750608672       -1.53980211575183        296.816166318901        300.000034193888                       0                       0                       0                       0                       0                       0                       0        505.191756502505         79.957848570899                       0       -1.52372622617301   1.83100000867853E-005    0.000168685674026621                       0       0.220683796675787                       0                       0                       0        10962.4999802648        538.845609426275                       1                       1                       1 
                  0.095                 -0.0005      0.0011608040201005        1.14544973478127        2972.94869879798       0.231509424646783       -3713.74613586801       -1.54722654635572        296.816295403721        300.000034256308                       0                       0                       0                       0                       0                       0                       0        504.947646054389        79.9534597616834                       0       -1.67559566088648   1.83100000867853E-005    0.000168670330303394                       0       0.082122884572341                       0                       0                       0        10962.4999802648        539.330050413744                       1                       1                       1 
                  0.095                 -0.0005     0.00126633165829146        1.14545118780112         2973.3686480627        0.23150374779828       -3713.56961802716       -1.55036631431478        296.816450810549         300.00003432032                       0                       0                       0                       0                       0                       0                       0        504.844616337387        79.9482406780463                       0       -1.82733040247825   1.83100000867853E-005    0.000168667635718285                       0    -0.00539838535375637                       0                       0                       0        10962.4999802648        539.819398959552                       1                       1                       1 
                  0.095                 -0.0005     0.00137185929648241         1.1454529456787        2974.50924070457       0.231497154547855       -3713.35980738146       -1.54922497604048        296.816630683797          300.0000343832                       0                       0                       0                       0                       0                       0                       0        504.926298456835        79.9420524283085                       0       -1.98026209068855   1.83100000867853E-005    0.000168681733110924                       0     -0.0270516846138146                       0                       0                       0        10962.4999802648        540.305265025215                       1                       1                       1 
                  0.095                 -0.0005     0.00147738693467337        1.14545465224244        2975.65521584596       0.231490745336724       -3713.15596110577       -1.54808366858851        296.816805229768        300.000034444747                       0                       0                       0                       0                       0                       0                       0        505.009150227169        79.9359181618183                       0        -2.1337577955499   1.83100000867853E-005    0.000168695958565174                       0      -0.049749675577866                       0                       0                       0        10962.4999706228        540.787014491513                       1                       1                       1 
                  0.095                 -0.0005     0.00158291457286432        1.14545641594757        2976.79519721459       0.231484131185549       -3712.94547310574       -1.54694232687703        296.816985708017        300.000034507779                       0                       0                       0                       0                       0                       0                       0        505.090699513126        79.9297237813767                       0       -2.28662543020259   1.83100000867853E-005    0.000168710041414268                       0     -0.0712843326565366                       0                       0                       0        10962.4999706228         541.27334806613                       1                       1                       1 
                  0.095                 -0.0005     0.00168844221105528        1.14545847925299        2977.61453550372       0.231476226751235       -3712.69862822826       -1.54609261678757         296.81720125341        300.000035711171                       0                       0                       0                       0                       0                       0                       0        505.069552860665        79.9224575589517                       0       -2.43867485832766   1.83100000867853E-005    0.000168717723363954                       0     -0.0820953330424052                       0                       0                       0        10962.4999706228        541.763009497372                       1                       1                       1 
                  0.095                 -0.0005     0.00179396984924623         1.1454606736846        2978.21434428899       0.231467715956462       -3712.43580320199       -1.54464441604301        296.817433129998         300.00003881094                       0                       0                       0                       0                       0                       0                       0        504.975097552585        79.9145052646052                       0       -2.59103405099339   1.83100000867853E-005    0.000168720997599322                       0     -0.0841380569646139                       0                       0                       0        10962.4999706228        542.248627242665                       1                       1                       1 
                  0.095                 -0.0005     0.00189949748743719        1.14546281944487         2978.8241649889        0.23145939808765       -3712.17895829979       -1.54251156961016        296.817659800465         300.00004280702                       0                       0                       0                       0                       0                       0                       0        504.881597538648         79.906608770941                       0       -2.74387796801709   1.83100000867853E-005    0.000168724440071764                       0     -0.0848815872808047                       0                       0                       0        10962.4999609808        542.730834942471                       1                       1                       1 
                  0.095                 -0.0005     0.00200502512562814        1.14546505107906        2979.41632103571       0.231450739827379       -3711.91156228688        -1.5415866862501        296.817895656419        300.000045221681                       0                       0                       0                       0                       0                       0                       0        504.786412038897         79.898613824608                       0       -2.89586665523437   1.83100000867853E-005    0.000168727585712902                       0     -0.0879173656132897                       0                       0                       0        10962.4999609808        543.219059200958                       1                       1                       1 
                  0.095                 -0.0005      0.0021105527638191        1.14546771020527        2980.54077986207       0.231440602156483       -3711.59472992431       -1.54281436034811        296.818169441429        300.000042940802                       0                       0                       0                       0                       0                       0                       0        504.779574875683        79.8892922991583                       0        -3.0481006700818   1.83100000867853E-005    0.000168740750192258                       0     -0.0861611470237339                       0                       0                       0        10962.4999609808        543.708887610078                       1                       1                       1 
                  0.095                 -0.0005     0.00221608040201005        1.14547045736987         2981.8904966297       0.231430230252404       -3711.26920130594       -1.54351942848548        296.818448855997        300.000038983647                       0                       0                       0                       0                       0                       0                       0          504.8094330115         79.879551230472                       0       -3.20118231382648   1.83100000867853E-005    0.000168758155406828                       0     -0.0847214865661171                       0                       0                       0        10962.4999609808        544.193985078298                       1                       1                       1 
                  0.095                 -0.0005     0.00232160804020101        1.14547316191438        2983.24941312838       0.231420045956767       -3710.94946632846       -1.54347204221832        296.818723261943        300.000035019031                       0                       0                       0                       0                       0                       0                       0        504.840479090851        79.8698643029583                       0       -3.35466569131725   1.83100000867853E-005    0.000168775736766904                       0     -0.0847726292957201                       0                       0                       0        10962.4999513389        544.676213195038                       1                       1                       1 
                  0.095                 -0.0005     0.00242713567839196        1.14547598056322        2984.58369971022       0.231409359387744       -3710.61422036642       -1.54543916048487        296.819011077188        300.000031074388                       0                       0                       0                       0                       0                       0                       0        504.868344756677        79.8600324263707                       0       -3.50707352994911   1.83100000867853E-005    0.000168792846542655                       0     -0.0808325322996742                       0                       0                       0        10962.4999513389        545.166123262949                       1                       1                       1 
                  0.095                 -0.0005     0.00253266331658291        1.14547923226511        2985.79496866886       0.231396973871112       -3710.22814957673       -1.54223901947751        296.819344962831        300.000032211316                       0                       0                       0                       0                       0                       0                       0        504.830838253173         79.848653283508                       0        -3.6593491317392   1.83100000867853E-005    0.000168807086110157                       0     -0.0660964982265975                       0                       0                       0        10962.4999513389         545.65626378099                       1                       1                       1 
                  0.095                 -0.0005     0.00263819095477387         1.1454824309072        2987.00720622051        0.23138471370434       -3709.84600323205       -1.54026164938628        296.819676054612        300.000032828565                       0                       0                       0                       0                       0                       0                       0        504.785006479462        79.8371362414267                       0       -3.81235135863931   1.83100000867853E-005    0.000168821244031277                       0     -0.0467745517716953                       0                       0                       0        10962.4999513389        546.141206075095                       1                       1                       1 
                  0.095                 -0.0005     0.00274371859296482        1.14548560938726        2988.22287992447       0.231372519135635         -3709.465847455       -1.53862241248865        296.820005465954        300.000033225348                       0                       0                       0                       0                       0                       0                       0        504.739566992593        79.8256380754593                       0       -3.96547484463771   1.83100000867853E-005    0.000168835465210161                       0     -0.0269932442530418                       0                       0                       0        10962.4999416969        546.625300023194                       1                       1                       1 
                  0.095                 -0.0005     0.00284924623115578         1.1454889377924         2989.4130023584       0.231359836778879       -3709.07088979232       -1.53446881177001        296.820347373063        300.000035261517                       0                       0                       0                       0                       0                       0                       0        504.691210455811        79.8139995464685                       0       -4.11769664648202   1.83100000867853E-005    0.000168849216003512                       0      -0.010627747675653                       0                       0                       0        10962.4999416969        547.115702282734                       1                       1                       1 
                  0.095                 -0.0005     0.00295477386934673        1.14549279640055        2991.04960080999       0.231345214186634       -3708.61241743553       -1.52981162605685        296.820742392679        300.000035330552                       0                       0                       0                       0                       0                       0                       0        504.690663145362        79.8005443730011                       0       -4.27033473039202   1.83100000867853E-005    0.000168870131254885                       0    -0.00719320781421033                       0                       0                       0        10962.4999416969        547.606104402784                       1                       1                       1 
                  0.095                 -0.0005     0.00306030150753769        1.14549652502793        2992.70988629891       0.231331095187126       -3708.16918442401       -1.52320775424286        296.821124599398        300.000038410736                       0                       0                       0                       0                       0                       0                       0        504.693391251062        79.7872306576505                       0       -4.42380388588005   1.83100000867853E-005    0.000168891554923825                       0    -0.00399474724497349                       0                       0                       0        10962.4999320549        548.090555819122                       1                       1                       1 
                  0.095                 -0.0005     0.00316582914572864         1.1455002820635        2994.36527474412       0.231316866182679       -3707.72262005128       -1.51702499165392        296.821509606902         300.00004083813                       0                       0                       0                       0                       0                       0                       0        504.695435020017         79.773885386724                       0         -4.577093366761   1.83100000867853E-005    0.000168912872236196                       0   -0.000751850118617332                       0                       0                       0        10962.4999320549        548.576295291864                       1                       1                       1 
                  0.095                 -0.0005      0.0032713567839196        1.14550421296263        2996.01096747076       0.231301938759914       -3707.25494337737       -1.51320006937809        296.821913816768        300.000041306643                       0                       0                       0                       0                       0                       0                       0        504.690654425271        79.7601698443365                       0       -4.72971074869146   1.83100000867853E-005    0.000168933831525487                       0     0.00179383565471096                       0                       0                       0        10962.4999320549        549.066936798467                       1                       1                       1 
                  0.095                 -0.0005     0.00337688442211055        1.14550856247868        2997.71422918262       0.231285229295939       -3706.73354565349       -1.51417649944068        296.822372485922        300.000045185226                       0                       0                       0                       0                       0                       0                       0        504.658922504591        79.7448558380354                       0       -4.88241613266292   1.83100000867853E-005    0.000168955097689939                       0    -0.00120690335177968                       0                       0                       0        10962.4999320549        549.557484089412                       1                       1                       1 
                  0.095                 -0.0005     0.00348241206030151        1.14551276456754        2999.45290107471       0.231269151338384       -3706.23107462522       -1.51769749763515         296.82281402005        300.000045776366                       0                       0                       0                       0                       0                       0                       0        504.631093642215         79.729722014992                       0       -5.03604034018655   1.83100000867853E-005    0.000168976988381467                       0    -0.00519902319058843                       0                       0                       0        10962.4999224129        550.041594550329                       1                       1                       1 
                  0.095                 -0.0005     0.00358793969849246        1.14551704421382        3001.17294463518       0.231252741162496       -3705.71864677771       -1.51987986816898        296.823264568449        300.000048096941                       0                       0                       0                       0                       0                       0                       0         504.60121148713        79.7144934024431                       0       -5.18918117965594   1.83100000867853E-005    0.000168998550526302                       0    -0.00866960515129477                       0                       0                       0        10962.4999224129        550.529091252266                       1                       1                       1 
                  0.095                 -0.0005     0.00369346733668342        1.14552155445372        3002.96231525123       0.231235456461611       -3705.17889416422       -1.52075702404891        296.823736779321        300.000049963541                       0                       0                       0                       0                       0                       0                       0         504.57432474047        79.6986660694087                       0       -5.34194218396141   1.83100000867853E-005    0.000169021058193149                       0     -0.0140728657514723                       0                       0                       0        10962.4999224129        551.019919301891                       1                       1                       1 